LIGGGHTS (Version LIGGGHTS-PUBLIC 3.0.5, compiled 2019-03-16-20:18:22 by wd based on LAMMPS 23 Nov 2013)
#Simple chute wear test

atom_style	granular
atom_modify	map array
boundary	f f f
newton		off

communicate	single vel yes

units		si

region		reg block -0.5 0.1 -0.2 0.2 -0.4 0.15 units box
create_box	1 reg
Created orthogonal box = (-0.5 -0.2 -0.4) to (0.1 0.2 0.15)
  2 by 1 by 2 MPI processor grid

neighbor	0.002 bin
neigh_modify	delay 0


#Material properties required for new pair styles

fix 		m1 all property/global youngsModulus peratomtype 5.e6
fix 		m2 all property/global poissonsRatio peratomtype 0.45
fix 		m3 all property/global coefficientRestitution peratomtypepair 1 0.3
fix 		m4 all property/global coefficientFriction peratomtypepair 1 0.5
fix 		m5 all property/global k_finnie peratomtypepair 1 1.0

#New pair style
pair_style gran model hertz tangential history #Hertzian without cohesion
pair_coeff	* *

timestep	0.00001

fix		gravi all gravity 9.81 vector 0.0 0.0 -1.0

#the chute
fix		cad all mesh/surface/stress file meshes/simple_chute.stl type 1 wear finnie
fix		inface all mesh/surface file meshes/insertion_face.stl type 1
fix granwalls all wall/gran model hertz tangential history mesh n_meshes 1 meshes cad


#distributions for insertion
fix		pts1 all particletemplate/sphere 1 atom_type 1 density constant 2500 radius constant 0.0015
fix		pts2 all particletemplate/sphere 1 atom_type 1 density constant 2500 radius constant 0.0025
fix		pdd1 all particledistribution/discrete 1.  2 pts1 0.3 pts2 0.7

#region and insertion
group		nve_group region reg
0 atoms in group nve_group
region		bc cylinder z 0.0 0.0 0.015 0.05 0.12 units box

#particle insertion
fix			ins nve_group insert/stream seed 5330 distributiontemplate pdd1 				nparticles 6000 massrate 0.1 insert_every 1000 overlapcheck yes all_in no vel constant 0.0 0.0 -1.0 				insertion_face inface

#apply nve integration to all particles that are inserted as single particles
fix		integr nve_group nve/sphere

fix	boundary all domain
variable	xlo equal f_boundary[1]
variable	xhi equal f_boundary[2]
variable	ylo equal f_boundary[3]
variable	yhi equal f_boundary[4]
variable	zlo equal f_boundary[5]
variable	zhi equal f_boundary[6]

#output settings, include total thermal energy
compute		1 all erotate/sphere
thermo_style	custom step atoms ke c_1 vol v_xlo v_xhi v_ylo v_yhi v_zlo v_zhi
thermo		1000
thermo_modify	lost ignore norm no
compute_modify	thermo_temp dynamic yes

#insert the first particles so that dump is not empty
run		1
INFO: Particle insertion ins: 12.766349 particles every 1000 steps - particle rate 1276.634850, (mass rate 0.100000)
      6000 particles (mass 0.469986) within 469000 steps
Memory usage per processor = 10.1992 Mbytes
Step Atoms KinEng 1 Volume xlo xhi ylo yhi zlo zhi 
       0        0           -0            0        0.132            0            0            0            0            0            0 
INFO: Particle insertion ins: inserted 12 particle templates (mass 0.000937) at step 1
 - a total of 12 particle templates (mass 0.000937) inserted so far.
       1       12 0.0004686209            0        0.132         -0.5          0.1         -0.2          0.2         -0.4         0.15 
Loop time of 0.0118833 on 4 procs for 1 steps with 12 atoms

Pair  time (%) = 2.86102e-06 (0.0240761)
Neigh time (%) = 0.00125808 (10.587)
Comm  time (%) = 0.000104964 (0.883291)
Outpt time (%) = 0.000823379 (6.9289)
Other time (%) = 0.00969398 (81.5768)

Nlocal:    3 ave 12 max 0 min
Histogram: 3 0 0 0 0 0 0 0 0 1
Nghost:    0 ave 0 max 0 min
Histogram: 4 0 0 0 0 0 0 0 0 0
Neighs:    0 ave 0 max 0 min
Histogram: 4 0 0 0 0 0 0 0 0 0

Total # of neighbors = 0
Ave neighs/atom = 0
Neighbor list builds = 1
Dangerous builds = 0
